file 63903 1713585332                                           
version 3
run CNPF-0-20240420-12:18:14-286681
attr configname CNPF
attr datetime 20240420-12:18:14
attr datetimef 20240420-121814
attr experiment CNPF
attr inifile omnetpp.ini
attr iterationvars ""
attr iterationvarsd ""
attr iterationvarsf ""
attr measurement ""
attr network ParcelDeliveryNetwork
attr processid 286681
attr repetition 0
attr replication #0
attr resultdir results
attr runnumber 0
attr seedset 0
config image-path ../inet4.5/images
config network ParcelDeliveryNetwork
config description "1 drones, 10 destinations, 100 parcels, "
config *.numdrones 1
config **.drone*.mobility.typename DroneNetMob
config **.drone[*].mobility.ndst 6
config **.drone[*].mobility.nd 8
config **.drone[*].mobility.npar 100
config **.drone[*].mobility.initFromDisplayString false
config **.drone[*].mobility.changeInterval "truncnormal(2s, 0.5s)"
config **.drone[*].mobility.angleDelta "normal(0deg, 30deg)"
config **.drone[*].mobility.speed 10mps
config **.drone[*].mobility.remainingBattery 480
config **.drone[*].mobility.weightCapacity 100
config **.drone[*].mobility.parcelSelectionMethod 1
config **.drone[*].mobility.initialX 0m
config **.drone[*].mobility.initialY 0m
config **.drone[*].mobility.initialZ 0m
config *.numdst 6
config **.dst*.mobility.typename StatNodeMob
config **.dst[0].mobility.initialX 200m
config **.dst[0].mobility.initialY 100m
config **.dst[0].mobility.initialZ 0m
config **.dst[1].mobility.initialX 100m
config **.dst[1].mobility.initialY 250m
config **.dst[1].mobility.initialZ 0m
config **.dst[2].mobility.initialX 260m
config **.dst[2].mobility.initialY 220m
config **.dst[2].mobility.initialZ 0m
config **.dst[3].mobility.initialX 200m
config **.dst[3].mobility.initialY 330m
config **.dst[3].mobility.initialZ 0m
config **.dst[4].mobility.initialX 400m
config **.dst[4].mobility.initialY 300m
config **.dst[4].mobility.initialZ 0m
config **.dst[5].mobility.initialX 400m
config **.dst[5].mobility.initialY 200m
config **.dst[5].mobility.initialZ 0m
config **.dst[*].mobility.initFromDisplayString false
config sim-time-limit 10day
config **.constraintAreaMinX 0m
config **.constraintAreaMinY 0m
config **.constraintAreaMinZ 0m
config **.constraintAreaMaxX 600m
config **.constraintAreaMaxY 400m
config **.constraintAreaMaxZ 0m
config **.updateInterval 0.2s

vector 0 ParcelDeliveryNetwork.gcs.wlan[0].mac.dcf frameSequenceActive:vector ETV
attr autoWarmupFilter false
attr interpolationmode sample-hold
attr recordingmode vector
attr source warmup(count(frameSequenceStarted)-count(frameSequenceFinished))
attr title "frame sequence active"
vector 1 ParcelDeliveryNetwork.gcs.wlan[0].mac.dcf.channelAccess.inProgressFrames queueLength:vector ETV
attr autoWarmupFilter false
attr interpolationmode sample-hold
attr recordingmode vector
attr source "warmup(count(packetEnqueued) - count(packetDequeued))"
attr title "queue length"
vector 2 ParcelDeliveryNetwork.gcs.wlan[0].mac.dcf.channelAccess.contention backoffActive:vector ETV
attr autoWarmupFilter false
attr interpolationmode sample-hold
attr recordingmode vector
attr source warmup(count(backoffStarted)-count(backoffStopped))
attr title "backoff active"
vector 3 ParcelDeliveryNetwork.gcs.udp passedUpPk:vector(count) ETV
attr interpolationmode none
attr recordingmode vector(count)
attr source packetSentToUpper
attr title "packets passed up, count"
vector 4 ParcelDeliveryNetwork.gcs.udp droppedPkWrongPort:vector(count) ETV
attr interpolationmode none
attr recordingmode vector(count)
attr source packetDropReasonIsNoPortFound(packetDropped)
attr title "packets dropped (wrong port), count"
vector 5 ParcelDeliveryNetwork.gcs.udp droppedPkBadChecksum:vector(count) ETV
attr interpolationmode none
attr recordingmode vector(count)
attr source packetDropReasonIsIncorrectlyReceived(packetDropped)
attr title "packets dropped (checksum error), count"
vector 6 ParcelDeliveryNetwork.gcs.wlan[0].radio radioMode:vector ETV
attr interpolationmode sample-hold
attr recordingmode vector
attr source radioModeChanged
attr title "Radio mode"
vector 7 ParcelDeliveryNetwork.gcs.wlan[0].radio radioChannel:vector ETV
attr interpolationmode sample-hold
attr recordingmode vector
attr source radioChannelChanged
attr title "Radio channel"
vector 8 ParcelDeliveryNetwork.drone[0] coordX:vector ETV
attr interpolationmode linear
attr recordingmode vector
attr source xCoord(mobilityPos(mobilityStateChanged))
attr title "coord X"
vector 9 ParcelDeliveryNetwork.drone[0] coordY:vector ETV
attr interpolationmode linear
attr recordingmode vector
attr source yCoord(mobilityPos(mobilityStateChanged))
attr title "coord Y"
vector 10 ParcelDeliveryNetwork.drone[0] coordZ:vector ETV
attr interpolationmode linear
attr recordingmode vector
attr source zCoord(mobilityPos(mobilityStateChanged))
attr title "coord Z"
vector 11 ParcelDeliveryNetwork.gcs.wlan[0].radio receptionState:vector ETV
attr interpolationmode sample-hold
attr recordingmode vector
attr source receptionStateChanged
attr title "Radio reception state"
vector 12 ParcelDeliveryNetwork.gcs.wlan[0].mac.dcf.channelAccess.contention stateChanged:vector ETV
attr enum IDLE,DEFER,IFS_AND_BACKOFF
attr interpolationmode none
attr recordingmode vector
attr title "contention state changed"
attr type enum
vector 13 ParcelDeliveryNetwork.gcs.wlan[0].mac.dcf.recoveryProcedure contentionWindowChanged:vector ETV
attr interpolationmode sample-hold
attr recordingmode vector
attr title "contention window"
0	5437 16 0 0 0 0 2 0 0 0 0
1	5453 16 0 0 0 0 2 0 0 0 0
2	5469 16 0 0 0 0 2 0 0 0 0
3	5485 8 0 0 0 0 1 0 0 0 0
4	5493 8 0 0 0 0 1 0 0 0 0
5	5501 8 0 0 0 0 1 0 0 0 0
6	5509 24 0 0 0 0 3 0 2 2 4
7	5533 8 0 0 0 0 1 0 0 0 0
8	5541 18 0 0 0 0.2 2 0 0 0 0
9	5559 18 0 0 0 0.2 2 0 0 0 0
10	5577 20 0 0 0 0.2 2 0 0 0 0
11	5597 9 0 0 0 0 1 1 1 1 1
12	5606 18 0 0 0 0 2 0 0 0 0
13	5624 10 0 0 0 0 1 31 31 31 961
8	5634 10 1 1 0.4 0.4 1 0 0 0 0
9	5644 10 1 1 0.4 0.4 1 0 0 0 0
10	5654 11 1 1 0.4 0.4 1 0 0 0 0
8	5665 10 2 2 0.6 0.6 1 0 0 0 0
9	567vector 14 ParcelDeliveryNetwork.gcs.wlan[0].mac.dcf.channelAccess.pendingQueue outgoingDataRate:vector ETV
attr interpolationmode linear
attr recordingmode vector
attr source throughput(packetPulled)
attr title "outgoing datarate"
attr unit bps
vector 15 ParcelDeliveryNetwork.gcs.wlan[0].mac.dcf.channelAccess.pendingQueue incomingDataRate:vector ETV
attr interpolationmode linear
attr recordingmode vector
attr source throughput(packetPushStarted)
attr title "incoming datarate"
attr unit bps
14	229401 78041 2633 2633 0.1 500.721893816623 5008 0 0 0 0
15	307442 78041 2633 2633 0.1 500.721893816623 5008 0 0 0 0

 1 0 0 0 0
8	5876 8 9 9 2 2 1 0 0 0 0
9	5884 8 9 9 2 2 1 0 0 0 0
10	5892 9 9 9 2 2 1 0 0 0 0
8	5901 11 10 10 2.2 2.2 1 0 0 0 0
9	5912 11 10 10 2.2 2.2 1 0 0 0 0
10	5923 12 10 10 2.2 2.2 1 0 0 0 0
8	5935 11 11 11 2.4 2.4 1 0 0 0 0
9	5946 11 11 11 2.4 2.4 1 0 0 0 0
10	5957 12 11 11 2.4 2.4 1 0 0 0 0
8	5969 22 12 12 2.426285337517 2.426285337517 1 0 0 0 0
9	5991 22 12 12 2.426285337517 2.426285337517 1 0 0 0 0
10	6013 23 12 12 2.426285337517 2.426285337517 1 0 0 0 0
8	6036 36 13 13 2.626285337517 2.626285337517 1 15.000360042614 15.000360042614 15.000360042614 225.01080140806
9	6072 36 13 13 2.626285337517 2.626285337517 1 9.7459966378567 9.7459966378567 9.7459966378567 94.984450465115
10	6108 23 13 13 2.626285337517 2.626285337517 1 0 0 0 0
8	6131 36 14 14 2.826285337517 2.826285337517 1 30.000720085229 30.000720085229 30.000720085229 900.04320563224
9	6167 36 14 14 2.826285337517 2.826285337517 1 19.491993275713 19.491993275713 19.491993275713 379.93780186046
10	6203 23 14 14 2.826285337517 2.826285337517 1 0 0 0 0
8	6226 36 15 15 3.026285337517 3.026285337517 1 45.001080127843 45.001080127843 45.001080127843 2025.0972126725
9	6262 35 15 15 3.026285337517 3.026285337517 1 29.23798991357 29.23798991357 29.23798991357 854.86005418603
10	6297 23 15 15 3.026285337517 3.026285337517 1 0 0 0 0
8	6320 36 16 16 3.226285337517 3.226285337517 1 60.001440170457 60.001440170457 60.001440170457 3600.172822529
9	6356 36 16 16 3.226285337517 3.226285337517 1 38.983986551427 38.983986551427 38.983986551427 1519.7512074418
10	6392 23 16 16 3.226285337517 3.226285337517 1 0 0 0 0
8	6415 36 17 17 3.426285337517 3.426285337517 1 75.001800213071 75.001800213071 75.001800213071 5625.2700352015
9	6451 36 17 17 3.426285337517 3.426285337517 1 48.729983189284 48.729983189284 48.729983189284 2374.6112616279
10	6487 23 17 17 3.426285337517 3.426285337517 1 0 0 0 0
8	6510 36 18 18 3.626285337517 3.626285337517 1 90.002160255686 90.002160255686 90.002160255686 8100.3888506901
9	6546 35 18 18 3.626285337517 3.626285337517 1 58.47597982714 58.47597982714 58.47597982714 3419.4402167441
10	6581 23 18 18 3.626285337517 3.626285337517 1 0 0 0 0
8	6604 35 19 19 3.826285337517 3.826285337517 1 105.0025202983 105.0025202983 105.0025202983 11025.529268995
9	6639 36 19 19 3.826285337517 3.826285337517 1 68.221976464997 68.221976464997 68.221976464997 4654.2380727906
10	6675 23 19 19 3.826285337517 3.826285337517 1 0 0 0 0
8	6698 36 20 20 4.026285337517 4.026285337517 1 120.00288034091 120.00288034091 120.00288034091 14400.691290116
9	6734 36 20 20 4.026285337517 4.026285337517 1 77.967973102854 77.967973102854 77.967973102854 6079.0048297674
10	6770 23 20 20 4.026285337517 4.026285337517 1 0 0 0 0
8	6793 36 21 21 4.226285337517 4.226285337517 1 135.00324038353 135.00324038353 135.00324038353 18225.874914053
9	6829 36 21 21 4.226285337517 4.226285337517 1 87.713969740711 87.713969740711 87.713969740711 7693.7404876743
10	6865 23 21 21 4.226285337517 4.226285337517 1 0 0 0 0
8	6888 36 22 22 4.426285337517 4.426285337517 1 150.00360042614 150.00360042614 150.00360042614 22501.080140806
9	6924 36 22 22 4.426285337517 4.426285337517 1 97.459966378567 97.459966378567 97.459966378567 9498.4450465115
10	6960 23 22 22 4.426285337517 4.426285337517 1 0 0 0 0
8	6983 36 23 23 4.626285337517 4.626285337517 1 165.00396046876 165.00396046876 165.00396046876 27226.306970375
9	7019 36 23 23 4.626285337517 4.626285337517 1 107.20596301642 107.20596301642 107.20596301642 11493.118506279
10	7055 23 23 23 4.626285337517 4.626285337517 1 0 0 0 0
8	7078 24 24 24 4.786228692172 4.786228692172 1 177 177 177 31329
9	7102 24 24 24 4.786228692172 4.786228692172 1 115 115 115 13225
10	7126 23 24 24 4.786228692172 4.786228692172 1 0 0 0 0
8	7149 24 25 25 4.986228692172 4.986228692172 1 177 177 177 31329
9	7173 24 25 25 4.986228692172 4.986228692172 1 115 115 115 13225
10	7197 23 25 25 4.986228692172 4.986228692172 1 0 0 0 0
8	7220 24 26 26 5.186228692172 5.186228692172 1 177 177 177 31329
9	7244 24 26 26 5.186228692172 5.186228692172 1 115 115 115 13225
10	7268 23 26 26 5.186228692172 5.186228692172 1 0 0 0 0
8	7291 24 27 27 5.386228692172 5.386228692172 1 177 177 177 31329
9	7315 24 27 27 5.386228692172 5.386228692172 1 115 115 115 13225
10	7339 23 27 27 5.386228692172 5.386228692172 1 0 0 0 0
8	7362 24 28 28 5.586228692172 5.586228692172 1 177 177 177 31329
9	7386 24 28 28 5.586228692172 5.586228692172 1 115 115 115 13225
10	7410 23 28 28 5.586228692172 5.586228692172 1 0 0 0 0
8	7433 24 29 29 5.786228692172 5.786228692172 1 177 177 177 31329
9	7457 24 29 29 5.786228692172 5.786228692172 1 115 115 115 13225
10	7481 23 29 29 5.786228692172 5.786228692172 1 0 0 0 0
8	7504 24 30 30 5.986228692172 5.986228692172 1 177 177 177 31329
9	7528 24 30 30 5.986228692172 5.986228692172 1 115 115 115 13225
10	7552 23 30 30 5.986228692172 5.986228692172 1 0 0 0 0
8	7575 24 31 31 6.186228692172 6.186228692172 1 177 177 177 31329
9	7599 24 31 31 6.186228692172 6.186228692172 1 115 115 115 13225
10	7623 23 31 31 6.186228692172 6.186228692172 1 0 0 0 0
8	7646 24 32 32 6.386228692172 6.386228692172 1 177 177 177 31329
9	7670 24 32 32 6.386228692172 6.386228692172 1 115 115 115 13225
10	7694 23 32 32 6.386228692172 6.386228692172 1 0 0 0 0
8	7717 24 33 33 6.411731065748 6.411731065748 1 177 177 177 31329
9	7741 24 33 33 6.411731065748 6.411731065748 1 115 115 115 13225
10	7765 23 33 33 6.411731065748 6.411731065748 1 0 0 0 0
8	7788 24 34 34 6.611731065748 6.611731065748 1 177 177 177 31329
9	7812 24 34 34 6.611731065748 6.611731065748 1 115 115 115 13225
10	7836 23 34 34 6.611731065748 6.611731065748 1 0 0 0 0
8	7859 24 35 35 6.811731065748 6.811731065748 1 177 177 177 31329
9	7883 24 35 35 6.811731065748 6.811731065748 1 115 115 115 13225
10	7907 23 35 35 6.811731065748 6.811731065748 1 0 0 0 0
8	7930 24 36 36 7.011731065748 7.011731065748 1 177 177 177 31329
9	7954 24 36 36 7.011731065748 7.011731065748 1 115 115 115 13225
10	7978 23 36 36 7.011731065748 7.011731065748 1 0 0 0 0
8	8001 24 37 37 7.211731065748 7.211731065748 1 177 177 177 31329
9	8025 24 37 37 7.211731065748 7.211731065748 1 115 115 115 13225
10	8049 23 37 37 7.211731065748 7.211731065748 1 0 0 0 0
8	8072 24 38 38 7.411731065748 7.411731065748 1 177 177 177 31329
9	8096 24 38 38 7.411731065748 7.411731065748 1 115 115 115 13225
10	8120 23 38 38 7.411731065748 7.411731065748 1 0 0 0 0
8	8143 24 39 39 7.611731065748 7.611731065748 1 177 177 177 31329
9	8167 24 39 39 7.611731065748 7.611731065748 1 115 115 115 13225
10	8191 23 39 39 7.611731065748 7.611731065748 1 0 0 0 0
8	8214 24 40 40 7.811731065748 7.811731065748 1 177 177 177 31329
9	8238 24 40 40 7.811731065748 7.811731065748 1 115 115 115 13225
10	8262 23 40 40 7.811731065748 7.811731065748 1 0 0 0 0
8	8285 24 41 41 7.873152206448 7.873152206448 1 177 177 177 31329
9	8309 24 41 41 7.873152206448 7.873152206448 1 115 115 115 13225
10	8333 23 41 41 7.873152206448 7.873152206448 1 0 0 0 0
8	8356 24 42 42 8.073152206448 8.073152206448 1 177 177 177 31329
9	8380 24 42 42 8.073152206448 8.073152206448 1 115 115 115 13225
10	8404 23 42 42 8.073152206448 8.073152206448 1 0 0 0 0
8	8427 24 43 43 8.273152206448 8.273152206448 1 177 177 177 31329
9	8451 24 43 43 8.273152206448 8.273152206448 1 115 115 115 13225
10	8475 23 43 43 8.273152206448 8.273152206448 1 0 0 0 0
8	8498 24 44 44 8.473152206448 8.473152206448 1 177 177 177 31329
9	8522 24 44 44 8.473152206448 8.473152206448 1 115 115 115 13225
10	8546 23 44 44 8.473152206448 8.473152206448 1 0 0 0 0
8	8569 24 45 45 8.673152206448 8.673152206448 1 177 177 177 31329
9	8593 24 45 45 8.673152206448 8.673152206448 1 115 115 115 13225
10	8617 23 45 45 8.673152206448 8.673152206448 1 0 0 0 0
8	8640 24 46 46 8.873152206448 8.873152206448 1 177 177 177 31329
9	8664 24 46 46 8.873152206448 8.873152206448 1 115 115 115 13225
10	8688 23 46 46 8.873152206448 8.873152206448 1 0 0 0 0
8	8711 24 47 47 9.073152206448 9.073152206448 1 177 177 177 31329
9	8735 24 47 47 9.073152206448 9.073152206448 1 115 115 115 13225
10	8759 23 47 47 9.073152206448 9.073152206448 1 0 0 0 0
8	8782 24 48 48 9.273152206448 9.273152206448 1 177 177 177 31329
9	8806 24 48 48 9.273152206448 9.273152206448 1 115 115 115 13225
10	8830 23 48 48 9.273152206448 9.273152206448 1 0 0 0 0
8	8853 24 49 49 9.473152206448 9.473152206448 1 177 177 177 31329
9	8877 24 49 49 9.473152206448 9.473152206448 1 115 115 115 13225
10	8901 23 49 49 9.473152206448 9.473152206448 1 0 0 0 0
8	8924 24 50 50 9.673152206448 9.673152206448 1 177 177 177 31329
9	8948 24 50 50 9.673152206448 9.673152206448 1 115 115 115 13225
10	8972 23 50 50 9.673152206448 9.673152206448 1 0 0 0 0
8	8995 24 51 51 9.715308005112 9.715308005112 1 177 177 177 31329
9	9019 24 51 51 9.715308005112 9.715308005112 1 115 115 115 13225
10	9043 23 51 51 9.715308005112 9.715308005112 1 0 0 0 0
8	9066 24 52 52 9.915308005112 9.915308005112 1 177 177 177 31329
9	9090 24 52 52 9.915308005112 9.915308005112 1 115 115 115 13225
10	9114 23 52 52 9.915308005112 9.915308005112 1 0 0 0 0
8	9137 25 53 53 10.115308005112 10.115308005112 1 177 177 177 31329
9	9162 25 53 53 10.115308005112 10.115308005112 1 115 115 115 13225
10	9187 24 53 53 10.115308005112 10.115308005112 1 0 0 0 0
8	9211 25 54 54 10.315308005112 10.315308005112 1 177 177 177 31329
9	9236 25 54 54 10.315308005112 10.315308005112 1 115 115 115 13225
10	9261 24 54 54 10.315308005112 10.315308005112 1 0 0 0 0
8	9285 25 55 55 10.515308005112 10.515308005112 1 177 177 177 31329
9	9310 25 55 55 10.515308005112 10.515308005112 1 115 115 115 13225
10	9335 24 55 55 10.515308005112 10.515308005112 1 0 0 0 0
8	9359 25 56 56 10.715308005112 10.715308005112 1 177 177 177 31329
9	9384 25 56 56 10.715308005112 10.715308005112 1 115 115 115 13225
10	9409 24 56 56 10.715308005112 10.715308005112 1 0 0 0 0
8	9433 25 57 57 10.915308005112 10.915308005112 1 177 177 177 31329
9	9458 25 57 57 10.915308005112 10.915308005112 1 115 115 115 13225
10	9483 24 57 57 10.915308005112 10.915308005112 1 0 0 0 0
8	9507 25 58 58 11.115308005112 11.115308005112 1 177 177 177 31329
9	9532 25 58 58 11.115308005112 11.115308005112 1 115 115 115 13225
10	9557 24 58 58 11.115308005112 11.115308005112 1 0 0 0 0
8	9581 25 59 59 11.315308005112 11.315308005112 1 177 177 177 31329
9	9606 25 59 59 11.315308005112 11.315308005112 1 115 115 115 13225
10	9631 24 59 59 11.315308005112 11.315308005112 1 0 0 0 0
8	9655 25 60 60 11.515308005112 11.515308005112 1 177 177 177 31329
9	9680 25 60 60 11.515308005112 11.515308005112 1 115 115 115 13225
10	9705 24 60 60 11.515308005112 11.515308005112 1 0 0 0 0
8	9729 25 61 61 11.715308005112 11.715308005112 1 177 177 177 31329
9	9754 25 61 61 11.715308005112 11.715308005112 1 115 115 115 13225
10	9779 24 61 61 11.715308005112 11.715308005112 1 0 0 0 0
8	9803 25 62 62 11.915308005112 11.915308005112 1 177 177 177 31329
9	9828 25 62 62 11.915308005112 11.915308005112 1 115 115 115 13225
10	9853 24 62 62 11.915308005112 11.915308005112 1 0 0 0 0
8	9877 25 63 63 12.115308005112 12.115308005112 1 177 177 177 31329
9	9902 25 63 63 12.115308005112 12.115308005112 1 115 115 115 13225
10	9927 24 63 63 12.115308005112 12.115308005112 1 0 0 0 0
8	9951 25 64 64 12.315308005112 12.315308005112 1 177 177 177 31329
9	9976 25 64 64 12.315308005112 12.315308005112 1 115 115 115 13225
10	10001 24 64 64 12.315308005112 12.315308005112 1 0 0 0 0
8	10025 25 65 65 12.515308005112 12.515308005112 1 177 177 177 31329
9	10050 25 65 65 12.515308005112 12.515308005112 1 115 115 115 13225
10	10075 24 65 65 12.515308005112 12.515308005112 1 0 0 0 0
8	10099 25 66 66 12.703472419145 12.703472419145 1 177 177 177 31329
9	10124 25 66 66 12.703472419145 12.703472419145 1 115 115 115 13225
10	10149 24 66 66 12.703472419145 12.703472419145 1 0 0 0 0
8	10173 25 67 67 12.903472419145 12.903472419145 1 177 177 177 31329
9	10198 25 67 67 12.903472419145 12.903472419145 1 115 115 115 13225
10	10223 24 67 67 12.903472419145 12.903472419145 1 0 0 0 0
8	10247 25 68 68 13.103472419145 13.103472419145 1 177 177 177 31329
9	10272 25 68 68 13.103472419145 13.103472419145 1 115 115 115 13225
10	10297 24 68 68 13.103472419145 13.103472419145 1 0 0 0 0
8	10321 25 69 69 13.303472419145 13.303472419145 1 177 177 177 31329
9	10346 25 69 69 13.303472419145 13.303472419145 1 115 115 115 13225
10	10371 24 69 69 13.303472419145 13.303472419145 1 0 0 0 0
8	10395 25 70 70 13.503472419145 13.503472419145 1 177 177 177 31329
9	10420 25 70 70 13.503472419145 13.503472419145 1 115 115 115 13225
10	10445 24 70 70 13.503472419145 13.503472419145 1 0 0 0 0
8	10469 25 71 71 13.703472419145 13.703472419145 1 177 177 177 31329
9	10494 25 71 71 13.703472419145 13.703472419145 1 115 115 115 13225
10	10519 24 71 71 13.703472419145 13.703472419145 1 0 0 0 0
8	10543 25 72 72 13.903472419145 13.903472419145 1 177 177 177 31329
9	10568 25 72 72 13.903472419145 13.903472419145 1 115 115 115 13225
10	10593 24 72 72 13.903472419145 13.903472419145 1 0 0 0 0
8	10617 25 73 73 14.103472419145 14.103472419145 1 177 177 177 31329
9	10642 25 73 73 14.103472419145 14.103472419145 1 115 115 115 13225
10	10667 24 73 73 14.103472419145 14.103472419145 1 0 0 0 0
8	10691 25 74 74 14.303472419145 14.303472419145 1 177 177 177 31329
9	10716 25 74 74 14.303472419145 14.303472419145 1 115 115 115 13225
10	10741 24 74 74 14.303472419145 14.303472419145 1 0 0 0 0
8	10765 25 75 75 14.503472419145 14.503472419145 1 177 177 177 31329
9	10790 25 75 75 14.503472419145 14.503472419145 1 115 115 115 13225
10	10815 24 75 75 14.503472419145 14.503472419145 1 0 0 0 0
8	10839 25 76 76 14.520821449784 14.520821449784 1 177 177 177 31329
9	10864 25 76 76 14.520821449784 14.520821449784 1 115 115 115 13225
10	10889 24 76 76 14.520821449784 14.520821449784 1 0 0 0 0
8	10913 25 77 77 14.720821449784 14.720821449784 1 177 177 177 31329
9	10938 25 77 77 14.720821449784 14.720821449784 1 115 115 115 13225
10	10963 24 77 77 14.720821449784 14.720821449784 1 0 0 0 0
8	10987 25 78 78 14.920821449784 14.920821449784 1 177 177 177 31329
9	11012 25 78 78 14.920821449784 14.920821449784 1 115 115 115 13225
10	11037 24 78 78 14.920821449784 14.920821449784 1 0 0 0 0
8	11061 25 79 79 15.120821449784 15.120821449784 1 177 177 177 31329
9	11086 25 79 79 15.120821449784 15.120821449784 1 115 115 115 13225
10	11111 24 79 79 15.120821449784 15.120821449784 1 0 0 0 0
8	11135 25 80 80 15.320821449784 15.320821449784 1 177 177 177 31329
9	11160 25 80 80 15.320821449784 15.320821449784 1 115 115 115 13225
10	11185 24 80 80 15.320821449784 15.320821449784 1 0 0 0 0
8	11209 25 81 81 15.520821449784 15.520821449784 1 177 177 177 31329
9	11234 25 81 81 15.520821449784 15.520821449784 1 115 115 115 13225
10	11259 24 81 81 15.520821449784 15.520821449784 1 0 0 0 0
8	11283 25 82 82 15.720821449784 15.720821449784 1 177 177 177 31329
9	11308 25 82 82 15.720821449784 15.720821449784 1 115 115 115 13225
10	11333 24 82 82 15.720821449784 15.720821449784 1 0 0 0 0
8	11357 25 83 83 15.920821449784 15.920821449784 1 177 177 177 31329
9	11382 25 83 83 15.920821449784 15.920821449784 1 115 115 115 13225
10	11407 24 83 83 15.920821449784 15.920821449784 1 0 0 0 0
8	11431 25 84 84 16.033922822336 16.033922822336 1 177 177 177 31329
9	11456 25 84 84 16.033922822336 16.033922822336 1 115 115 115 13225
10	11481 24 84 84 16.033922822336 16.033922822336 1 0 0 0 0
8	11505 25 85 85 16.233922822336 16.233922822336 1 177 177 177 31329
9	11530 25 85 85 16.233922822336 16.233922822336 1 115 115 115 13225
10	11555 24 85 85 16.233922822336 16.233922822336 1 0 0 0 0
8	11579 25 86 86 16.433922822336 16.433922822336 1 177 177 177 31329
9	11604 25 86 86 16.433922822336 16.433922822336 1 115 115 115 13225
10	11629 24 86 86 16.433922822336 16.433922822336 1 0 0 0 0
8	11653 25 87 87 16.633922822336 16.633922822336 1 177 177 177 31329
9	11678 25 87 87 16.633922822336 16.633922822336 1 115 115 115 13225
10	11703 24 87 87 16.633922822336 16.633922822336 1 0 0 0 0
8	11727 25 88 88 16.833922822336 16.833922822336 1 177 177 177 31329
9	11752 25 88 88 16.833922822336 16.833922822336 1 115 115 115 13225
10	11777 24 88 88 16.833922822336 16.833922822336 1 0 0 0 0
8	11801 25 89 89 17.033922822336 17.033922822336 1 177 177 177 31329
9	11826 25 89 89 17.033922822336 17.033922822336 1 115 115 115 13225
10	11851 24 89 89 17.033922822336 17.033922822336 1 0 0 0 0
8	11875 25 90 90 17.233922822336 17.233922822336 1 177 177 177 31329
9	11900 25 90 90 17.233922822336 17.233922822336 1 115 115 115 13225
10	11925 24 90 90 17.233922822336 17.233922822336 1 0 0 0 0
8	11949 25 91 91 17.433922822336 17.433922822336 1 177 177 177 31329
9	11974 25 91 91 17.433922822336 17.433922822336 1 115 115 115 13225
10	11999 24 91 91 17.433922822336 17.433922822336 1 0 0 0 0
8	12023 25 92 92 17.633922822336 17.633922822336 1 177 177 177 31329
9	12048 25 92 92 17.633922822336 17.633922822336 1 115 115 115 13225
10	12073 24 92 92 17.633922822336 17.633922822336 1 0 0 0 0
8	12097 25 93 93 17.833922822336 17.833922822336 1 177 177 177 31329
9	12122 25 93 93 17.833922822336 17.833922822336 1 115 115 115 13225
10	12147 24 93 93 17.833922822336 17.833922822336 1 0 0 0 0
8	12171 25 94 94 18.033922822336 18.033922822336 1 177 177 177 31329
9	12196 25 94 94 18.033922822336 18.033922822336 1 115 115 115 13225
10	12221 24 94 94 18.033922822336 18.033922822336 1 0 0 0 0
8	12245 25 95 95 18.233922822336 18.233922822336 1 177 177 177 31329
9	12270 25 95 95 18.233922822336 18.233922822336 1 115 115 115 13225
10	12295 24 95 95 18.233922822336 18.233922822336 1 0 0 0 0
8	12319 25 96 96 18.371158061929 18.371158061929 1 177 177 177 31329
9	12344 25 96 96 18.371158061929 18.371158061929 1 115 115 115 13225
10	12369 24 96 96 18.371158061929 18.371158061929 1 0 0 0 0
8	12393 25 97 97 18.571158061929 18.571158061929 1 177 177 177 31329
9	12418 25 97 97 18.571158061929 18.571158061929 1 115 115 115 13225
10	12443 24 97 97 18.571158061929 18.571158061929 1 0 0 0 0
8	12467 25 98 98 18.771158061929 18.771158061929 1 177 177 177 31329
9	12492 25 98 98 18.771158061929 18.771158061929 1 115 115 115 13225
10	12517 24 98 98 18.771158061929 18.771158061929 1 0 0 0 0
8	12541 25 99 99 18.971158061929 18.971158061929 1 177 177 177 31329
9	12566 25 99 99 18.971158061929 18.971158061929 1 115 115 115 13225
10	12591 24 99 99 18.971158061929 18.971158061929 1 0 0 0 0
8	12615 26 100 100 19.171158061929 19.171158061929 1 177 177 177 31329
9	12641 26 100 100 19.171158061929 19.171158061929 1 115 115 115 13225
10	12667 25 100 100 19.171158061929 19.171158061929 1 0 0 0 0
8	12692 26 101 101 19.371158061929 19.371158061929 1 177 177 177 31329
9	12718 26 101 101 19.371158061929 19.371158061929 1 115 115 115 13225
10	12744 25 101 101 19.371158061929 19.371158061929 1 0 0 0 0
8	12769 26 102 102 19.571158061929 19.571158061929 1 177 177 177 31329
9	12795 26 102 102 19.571158061929 19.571158061929 1 115 115 115 13225
10	12821 25 102 102 19.571158061929 19.571158061929 1 0 0 0 0
8	12846 26 103 103 19.762543270421 19.762543270421 1 177 177 177 31329
9	12872 26 103 103 19.762543270421 19.762543270421 1 115 115 115 13225
10	12898 25 103 103 19.762543270421 19.762543270421 1 0 0 0 0
8	12923 26 104 104 19.962543270421 19.962543270421 1 177 177 177 31329
9	12949 26 104 104 19.962543270421 19.962543270421 1 115 115 115 13225
10	12975 25 104 104 19.962543270421 19.962543270421 1 0 0 0 0
8	13000 26 105 105 20.162543270421 20.162543270421 1 177 177 177 31329
9	13026 26 105 105 20.162543270421 20.162543270421 1 115 115 115 13225
10	13052 25 105 105 20.162543270421 20.162543270421 1 0 0 0 0
8	13077 26 106 106 20.362543270421 20.362543270421 1 177 177 177 31329
9	13103 26 106 106 20.362543270421 20.362543270421 1 115 115 115 13225
10	13129 25 106 106 20.362543270421 20.362543270421 1 0 0 0 0
8	13154 26 107 107 20.562543270421 20.562543270421 1 177 177 177 31329
9	13180 26 107 107 20.562543270421 20.562543270421 1 115 115 115 13225
10	13206 25 107 107 20.562543270421 20.562543270421 1 0 0 0 0
8	13231 26 108 108 20.762543270421 20.762543270421 1 177 177 177 31329
9	13257 26 108 108 20.762543270421 20.762543270421 1 115 115 115 13225
10	13283 25 108 108 20.762543270421 20.762543270421 1 0 0 0 0
8	13308 26 109 109 20.962543270421 20.962543270421 1 177 177 177 31329
9	13334 26 109 109 20.962543270421 20.962543270421 1 115 115 115 13225
10	13360 25 109 109 20.962543270421 20.962543270421 1 0 0 0 0
8	13385 26 110 110 21.162543270421 21.162543270421 1 177 177 177 31329
9	13411 26 110 110 21.162543270421 21.162543270421 1 115 115 115 13225
10	13437 25 110 110 21.162543270421 21.162543270421 1 0 0 0 0
8	13462 26 111 111 21.256213312973 21.256213312973 1 177 177 177 31329
9	13488 26 111 111 21.256213312973 21.256213312973 1 115 115 115 13225
10	13514 25 111 111 21.256213312973 21.256213312973 1 0 0 0 0
8	13539 38 112 112 21.456213312973 21.456213312973 1 163.31533946559 163.31533946559 163.31533946559 26671.900104761
9	13577 38 112 112 21.456213312973 21.456213312973 1 106.10883637595 106.10883637595 106.10883637595 11259.085157058
10	13615 25 112 112 21.456213312973 21.456213312973 1 0 0 0 0
8	13640 38 113 113 21.656213312973 21.656213312973 1 149.63067893118 149.63067893118 149.63067893118 22389.340077406
9	13678 38 113 113 21.656213312973 21.656213312973 1 97.217672751897 97.217672751897 97.217672751897 9451.2758952949
10	13716 25 113 113 21.656213312973 21.656213312973 1 0 0 0 0
8	13741 38 114 114 21.856213312973 21.856213312973 1 135.94601839677 135.94601839677 135.94601839677 18481.319917935
9	13779 38 114 114 21.856213312973 21.856213312973 1 88.326509127845 88.326509127845 88.326509127845 7801.5722147113
10	13817 25 114 114 21.856213312973 21.856213312973 1 0 0 0 0
8	13842 38 115 115 22.056213312973 22.056213312973 1 122.26135786236 122.26135786236 122.26135786236 14947.839626348
9	13880 38 115 115 22.056213312973 22.056213312973 1 79.435345503793 79.435345503793 79.435345503793 6309.974115307
10	13918 25 115 115 22.056213312973 22.056213312973 1 0 0 0 0
8	13943 38 116 116 22.256213312973 22.256213312973 1 108.57669732795 108.57669732795 108.57669732795 11788.899202645
9	13981 38 116 116 22.256213312973 22.256213312973 1 70.544181879742 70.544181879742 70.544181879742 4976.4815970821
10	14019 25 116 116 22.256213312973 22.256213312973 1 0 0 0 0
8	14044 37 117 117 22.456213312973 22.456213312973 1 94.89203679354 94.89203679354 94.89203679354 9004.4986468265
9	14081 37 117 117 22.456213312973 22.456213312973 1 61.65301825569 61.65301825569 61.65301825569 3801.0946600364
10	14118 25 117 117 22.456213312973 22.456213312973 1 0 0 0 0
8	14143 37 118 118 22.656213312973 22.656213312973 1 81.20737625913 81.20737625913 81.20737625913 6594.6379588919
9	14180 38 118 118 22.656213312973 22.656213312973 1 52.761854631638 52.761854631638 52.761854631638 2783.8133041701
10	14218 25 118 118 22.656213312973 22.656213312973 1 0 0 0 0
8	14243 37 119 119 22.856213312973 22.856213312973 1 67.52271572472 67.52271572472 67.52271572472 4559.3171388414
9	14280 38 119 119 22.856213312973 22.856213312973 1 43.870691007586 43.870691007586 43.870691007586 1924.6375294831
10	14318 25 119 119 22.856213312973 22.856213312973 1 0 0 0 0
8	14343 37 120 120 23.056213312973 23.056213312973 1 53.83805519031 53.83805519031 53.83805519031 2898.5361866749
9	14380 38 120 120 23.056213312973 23.056213312973 1 34.979527383535 34.979527383535 34.979527383535 1223.5673359755